version 2
run Run0-0-20140204-12:46:18-4868
attr configname Run0
attr datetime 20140204-12:46:18
attr experiment Run0
attr inifile omnetpp.ini
attr iterationvars ""
attr iterationvars2 $repetition=0
attr measurement ""
attr network crSimulator.crModules.CrNetworks.crDemo
attr processid 4868
attr repetition 0
attr replication #0
attr resultdir results
attr runnumber 0
attr seedset 0

vector 0  crDemo.CR1.specSensor  sensingSignal:vector  ETV
attr source  sensingSignal
attr title  "Spectrum Sensing, vector"
vector 1  crDemo.CR2.specSensor  sensingSignal:vector  ETV
attr source  sensingSignal
attr title  "Spectrum Sensing, vector"
0	82	0.548863502304	2
0	197	0.60005	2
0	198	0.6001	1
0	354	0.64005	2
0	355	0.6401	1
0	356	0.64015	2
0	357	0.6402	1
0	358	0.64025	2
0	359	0.6403	1
0	360	0.64035	2
0	361	0.6404	1
0	362	0.64045	2
0	363	0.6405	1
0	364	0.64055	2
0	365	0.6406	1
0	366	0.64065	2
0	367	0.6407	1
0	368	0.64075	2
0	369	0.6408	1
0	370	0.64085	2
0	371	0.6409	1
0	372	0.64095	2
0	373	0.641	1
0	374	0.64105	2
0	375	0.6411	1
0	376	0.64115	2
0	377	0.6412	1
0	378	0.64125	2
0	379	0.6413	1
0	380	0.64135	2
0	381	0.6414	1
0	382	0.64145	2
0	383	0.6415	1
0	384	0.64155	2
0	385	0.6416	1
0	386	0.64165	2
0	387	0.6417	1
0	388	0.64175	2
0	389	0.6418	1
0	390	0.64185	2
0	391	0.6419	1
0	392	0.64195	2
0	393	0.642	1
0	394	0.64205	2
0	395	0.6421	1
0	396	0.64215	2
0	397	0.6422	1
0	398	0.64225	2
0	399	0.6423	1
0	400	0.64235	2
0	401	0.6424	1
0	402	0.64245	2
0	403	0.6425	1
0	404	0.64255	2
0	405	0.6426	1
0	406	0.64265	2
0	407	0.6427	1
0	408	0.64275	2
0	409	0.6428	1
0	410	0.64285	2
0	411	0.6429	1
0	412	0.64295	2
0	413	0.643	1
0	414	0.64305	2
0	415	0.6431	1
0	416	0.64315	2
0	417	0.6432	1
0	418	0.64325	2
0	424	0.6433	1
0	425	0.64335	2
0	426	0.6434	1
0	427	0.64345	2
0	428	0.6435	1
0	429	0.64355	2
0	430	0.6436	1
0	431	0.64365	2
0	432	0.6437	1
0	433	0.64375	2
0	434	0.6438	1
0	435	0.64385	2
0	436	0.6439	1
0	437	0.64395	2
0	438	0.644	1
0	439	0.64405	2
0	440	0.6441	1
0	441	0.64415	2
0	442	0.6442	1
0	443	0.64425	2
0	444	0.6443	1
0	445	0.64435	2
0	446	0.6444	1
0	447	0.64445	2
0	448	0.6445	1
0	449	0.64455	2
0	450	0.6446	1
0	451	0.64465	2
0	452	0.6447	1
0	453	0.64475	2
0	454	0.6448	1
0	455	0.64485	2
0	456	0.6449	1
0	457	0.64495	2
0	458	0.645	1
0	459	0.64505	2
0	460	0.6451	1
0	461	0.64515	2
0	462	0.6452	1
0	463	0.64525	2
0	464	0.6453	1
0	465	0.64535	2
0	466	0.6454	1
0	467	0.64545	2
0	468	0.6455	1
0	469	0.64555	2
0	470	0.6456	1
0	471	0.64565	2
0	472	0.6457	1
0	473	0.64575	2
0	474	0.6458	1
0	475	0.64585	2
0	476	0.6459	1
0	477	0.64595	2
0	478	0.646	1
0	479	0.64605	2
0	480	0.6461	1
0	481	0.64615	2
0	482	0.6462	1
0	483	0.64625	2
0	484	0.6463	1
0	485	0.64635	2
0	486	0.6464	1
0	487	0.64645	2
0	488	0.6465	1
0	489	0.64655	2
0	490	0.6466	1
0	491	0.64665	2
0	492	0.6467	1
0	493	0.64675	2
0	494	0.6468	1
0	495	0.64685	2
0	496	0.6469	1
0	497	0.64695	2
0	498	0.647	1
0	499	0.64705	2
0	500	0.6471	1
0	501	0.64715	2
0	502	0.6472	1
0	503	0.64725	2
0	504	0.6473	1
0	505	0.64735	2
0	506	0.6474	1
0	507	0.64745	2
0	513	0.6475	1
0	514	0.64755	2
0	515	0.6476	1
0	516	0.64765	2
0	517	0.6477	1
0	518	0.64775	2
0	519	0.6478	1
0	520	0.64785	2
0	521	0.6479	1
0	522	0.64795	2
0	523	0.648	1
0	524	0.64805	2
0	525	0.6481	1
0	526	0.64815	2
0	527	0.6482	1
0	528	0.64825	2
0	529	0.6483	1
0	530	0.64835	2
0	531	0.6484	1
0	532	0.64845	2
0	533	0.6485	1
0	534	0.64855	2
0	535	0.6486	1
0	536	0.64865	2
0	537	0.6487	1
0	538	0.64875	2
0	539	0.6488	1
0	540	0.64885	2
0	541	0.6489	1
0	542	0.64895	2
0	543	0.649	1
0	544	0.64905	2
0	545	0.6491	1
0	546	0.64915	2
0	547	0.6492	1
0	548	0.64925	2
0	549	0.6493	1
0	550	0.64935	2
0	551	0.6494	1
0	552	0.64945	2
0	553	0.6495	1
0	554	0.64955	2
0	555	0.6496	1
0	556	0.64965	2
1	91	0.549046835637	2
1	207	0.600283333333	1
